DF-ISE text

Info {
  version = 1.1
  type    = grid
  dimension   = 2
  nb_vertices = 10530
  nb_edges    = 31005
  nb_faces    = 0
  nb_elements = 20898
  nb_regions  = 15
  regions     = [ "OX1" "OX2" "MID_OX1" "OX3" "MID_OX2" "IMP1_AL" "OX4" "MID_OX3" "IMP2_AL" "IMP3_AL" "bulk" "pix1_electrode" "pix2_electrode" "pix3_electrode" "bot_electrode" ]
  materials   = [ SiO2 SiO2 SiO2 SiO2 SiO2 Aluminum SiO2 SiO2 Aluminum Aluminum Silicon Contact Contact Contact Contact ]
}

Data {

  CoordSystem {
    translate = [  0.000000000000000e+00 0.000000000000000e+00 0.000000000000000e+00 ]
    transform = [  1.000000000000000e+00 0.000000000000000e+00 0.000000000000000e+00
 0.000000000000000e+00 1.000000000000000e+00 0.000000000000000e+00
 0.000000000000000e+00 0.000000000000000e+00 1.000000000000000e+00
 ]
  }

  Vertices (10530) {
 6.445312500000000e-01 3.964843750000000e-01
 6.445312500000000e-01 -0.000000000000000e+00
 -0.000000000000000e+00 3.964843750000000e-01
 1.289062500000000e+00 3.964843750000000e-01
 1.289062500000000e+00 -0.000000000000000e+00
 6.445312500000000e-01 7.929687500000000e-01
 -0.000000000000000e+00 7.929687500000000e-01
 1.289062500000000e+00 7.929687500000000e-01
 6.445312500000000e-01 9.912109375000000e-01
 -0.000000000000000e+00 9.912109375000000e-01
 6.445312500000000e-01 1.189453125000000e+00
 -0.000000000000000e+00 1.189453125000000e+00
 1.289062500000000e+00 9.912109375000000e-01
 1.289062500000000e+00 1.189453125000000e+00
 6.445312500000000e-01 1.387695312500000e+00
 -0.000000000000000e+00 1.387695312500000e+00
 6.445312500000000e-01 1.585937500000000e+00
 -0.000000000000000e+00 1.585937500000000e+00
 1.289062500000000e+00 1.387695312500000e+00
 1.289062500000000e+00 1.585937500000000e+00
 1.933593750000000e+00 3.964843750000000e-01
 1.933593750000000e+00 -0.000000000000000e+00
 2.578125000000000e+00 3.964843750000000e-01
 2.578125000000000e+00 -0.000000000000000e+00
 1.933593750000000e+00 7.929687500000000e-01
 2.578125000000000e+00 7.929687500000000e-01
 1.933593750000000e+00 9.912109375000000e-01
 1.933593750000000e+00 1.189453125000000e+00
 2.578125000000000e+00 9.912109375000000e-01
 2.578125000000000e+00 1.189453125000000e+00
 1.933593750000000e+00 1.387695312500000e+00
 1.933593750000000e+00 1.585937500000000e+00
 2.578125000000000e+00 1.387695312500000e+00
 2.578125000000000e+00 1.585937500000000e+00
 6.445312500000000e-01 1.784179687500000e+00
 -0.000000000000000e+00 1.784179687500000e+00
 6.445312500000000e-01 1.982421875000000e+00
 -0.000000000000000e+00 1.982421875000000e+00
 1.289062500000000e+00 1.784179687500000e+00
 1.289062500000000e+00 1.982421875000000e+00
 6.445312500000000e-01 2.378906250000000e+00
 -0.000000000000000e+00 2.378906250000000e+00
 1.289062500000000e+00 2.378906250000000e+00
 6.445312500000000e-01 3.171875000000000e+00
 -0.000000000000000e+00 3.171875000000000e+00
 1.289062500000000e+00 3.171875000000000e+00
 1.933593750000000e+00 1.784179687500000e+00
 1.933593750000000e+00 1.982421875000000e+00
 2.578125000000000e+00 1.784179687500000e+00
 2.578125000000000e+00 1.982421875000000e+00
 1.933593750000000e+00 2.378906250000000e+00
 2.578125000000000e+00 2.378906250000000e+00
 1.933593750000000e+00 3.171875000000000e+00
 2.578125000000000e+00 3.171875000000000e+00
 3.222656250000000e+00 3.964843750000000e-01
 3.222656250000000e+00 -0.000000000000000e+00
 3.867187500000000e+00 3.964843750000000e-01
 3.867187500000000e+00 -0.000000000000000e+00
 3.222656250000000e+00 7.929687500000000e-01
 3.867187500000000e+00 7.929687500000000e-01
 3.222656250000000e+00 9.912109375000000e-01
 3.222656250000000e+00 1.189453125000000e+00
 3.867187500000000e+00 9.912109375000000e-01
 3.867187500000000e+00 1.189453125000000e+00
 3.222656250000000e+00 1.387695312500000e+00
 3.222656250000000e+00 1.585937500000000e+00
 3.867187500000000e+00 1.387695312500000e+00
 3.867187500000000e+00 1.585937500000000e+00
 4.511718750000000e+00 3.964843750000000e-01
 4.511718750000000e+00 -0.000000000000000e+00
 5.156250000000000e+00 3.964843750000000e-01
 5.156250000000000e+00 -0.000000000000000e+00
 4.511718750000000e+00 7.929687500000000e-01
 5.156250000000000e+00 7.929687500000000e-01
 4.511718750000000e+00 9.912109375000000e-01
 4.511718750000000e+00 1.189453125000000e+00
 5.156250000000000e+00 9.912109375000000e-01
 5.156250000000000e+00 1.189453125000000e+00
 4.511718750000000e+00 1.387695312500000e+00
 4.511718750000000e+00 1.585937500000000e+00
 5.156250000000000e+00 1.387695312500000e+00
 5.156250000000000e+00 1.585937500000000e+00
 3.222656250000000e+00 1.784179687500000e+00
 3.222656250000000e+00 1.982421875000000e+00
 3.867187500000000e+00 1.784179687500000e+00
 3.867187500000000e+00 1.982421875000000e+00
 3.222656250000000e+00 2.378906250000000e+00
 3.867187500000000e+00 2.378906250000000e+00
 3.222656250000000e+00 3.171875000000000e+00
 3.867187500000000e+00 3.171875000000000e+00
 4.511718750000000e+00 1.784179687500000e+00
 4.511718750000000e+00 1.982421875000000e+00
 5.156250000000000e+00 1.784179687500000e+00
 5.156250000000000e+00 1.982421875000000e+00
 4.511718750000000e+00 2.378906250000000e+00
 5.156250000000000e+00 2.378906250000000e+00
 4.511718750000000e+00 3.171875000000000e+00
 5.156250000000000e+00 3.171875000000000e+00
 6.445312500000000e-01 3.964843750000000e+00
 -0.000000000000000e+00 3.964843750000000e+00
 1.289062500000000e+00 3.964843750000000e+00
 6.445312500000000e-01 4.757812500000000e+00
 -0.000000000000000e+00 4.757812500000000e+00
 1.289062500000000e+00 4.757812500000000e+00
 1.933593750000000e+00 3.964843750000000e+00
 2.578125000000000e+00 3.964843750000000e+00
 1.933593750000000e+00 4.757812500000000e+00
 2.578125000000000e+00 4.757812500000000e+00
 3.222656250000000e+00 3.964843750000000e+00
 3.867187500000000e+00 3.964843750000000e+00
 3.222656250000000e+00 4.757812500000000e+00
 3.867187500000000e+00 4.757812500000000e+00
 4.511718750000000e+00 3.964843750000000e+00
 5.156250000000000e+00 3.964843750000000e+00
 4.511718750000000e+00 4.757812500000000e+00
 5.156250000000000e+00 4.757812500000000e+00
 1.289062500000000e+00 6.343750000000000e+00
 -0.000000000000000e+00 6.343750000000000e+00
 2.578125000000000e+00 6.343750000000000e+00
 3.867187500000000e+00 6.343750000000000e+00
 5.156250000000000e+00 6.343750000000000e+00
 5.800781250000000e+00 3.964843750000000e-01
 5.800781250000000e+00 -0.000000000000000e+00
 6.445312500000000e+00 3.964843750000000e-01
 6.445312500000000e+00 -0.000000000000000e+00
 5.800781250000000e+00 7.929687500000000e-01
 6.445312500000000e+00 7.929687500000000e-01
 5.800781250000000e+00 9.912109375000000e-01
 5.800781250000000e+00 1.189453125000000e+00
 6.445312500000000e+00 9.912109375000000e-01
 6.445312500000000e+00 1.189453125000000e+00
 5.800781250000000e+00 1.387695312500000e+00
 5.800781250000000e+00 1.585937500000000e+00
 6.445312500000000e+00 1.387695312500000e+00
 6.445312500000000e+00 1.585937500000000e+00
 7.089843750000000e+00 3.964843750000000e-01
 7.089843750000000e+00 -0.000000000000000e+00
 7.734375000000000e+00 3.964843750000000e-01
 7.734375000000000e+00 -0.000000000000000e+00
 7.089843750000000e+00 7.929687500000000e-01
 7.734375000000000e+00 7.929687500000000e-01
 7.089843750000000e+00 9.912109375000000e-01
 7.089843750000000e+00 1.189453125000000e+00
 7.734375000000000e+00 9.912109375000000e-01
 7.734375000000000e+00 1.189453125000000e+00
 7.089843750000000e+00 1.387695312500000e+00
 7.089843750000000e+00 1.585937500000000e+00
 7.734375000000000e+00 1.387695312500000e+00
 7.734375000000000e+00 1.585937500000000e+00
 5.800781250000000e+00 1.784179687500000e+00
 5.800781250000000e+00 1.982421875000000e+00
 6.445312500000000e+00 1.784179687500000e+00
 6.445312500000000e+00 1.982421875000000e+00
 5.800781250000000e+00 2.378906250000000e+00
 6.445312500000000e+00 2.378906250000000e+00
 5.800781250000000e+00 3.171875000000000e+00
 6.445312500000000e+00 3.171875000000000e+00
 7.089843750000000e+00 1.784179687500000e+00
 7.089843750000000e+00 1.982421875000000e+00
 7.734375000000000e+00 1.784179687500000e+00
 7.734375000000000e+00 1.982421875000000e+00
 7.089843750000000e+00 2.378906250000000e+00
 7.734375000000000e+00 2.378906250000000e+00
 7.089843750000000e+00 3.171875000000000e+00
 7.734375000000000e+00 3.171875000000000e+00
 8.378906250000000e+00 3.964843750000000e-01
 8.378906250000000e+00 -0.000000000000000e+00
 9.023437500000000e+00 3.964843750000000e-01
 9.023437500000000e+00 -0.000000000000000e+00
 8.378906250000000e+00 7.929687500000000e-01
 9.023437500000000e+00 7.929687500000000e-01
 8.378906250000000e+00 9.912109375000000e-01
 8.378906250000000e+00 1.189453125000000e+00
 9.023437500000000e+00 9.912109375000000e-01
 9.023437500000000e+00 1.189453125000000e+00
 8.378906250000000e+00 1.387695312500000e+00
 8.378906250000000e+00 1.585937500000000e+00
 9.023437500000000e+00 1.387695312500000e+00
 9.023437500000000e+00 1.585937500000000e+00
 9.667968750000000e+00 3.964843750000000e-01
 9.667968750000000e+00 -0.000000000000000e+00
 1.031250000000000e+01 3.964843750000000e-01
 1.031250000000000e+01 -0.000000000000000e+00
 9.667968750000000e+00 7.929687500000000e-01
 1.031250000000000e+01 7.929687500000000e-01
 9.667968750000000e+00 9.912109375000000e-01
 9.667968750000000e+00 1.189453125000000e+00
 1.031250000000000e+01 9.912109375000000e-01
 1.031250000000000e+01 1.189453125000000e+00
 9.667968750000000e+00 1.387695312500000e+00
 9.667968750000000e+00 1.585937500000000e+00
 1.031250000000000e+01 1.387695312500000e+00
 1.031250000000000e+01 1.585937500000000e+00
 8.378906250000000e+00 1.784179687500000e+00
 8.378906250000000e+00 1.982421875000000e+00
 9.023437500000000e+00 1.784179687500000e+00
 9.023437500000000e+00 1.982421875000000e+00
 8.378906250000000e+00 2.378906250000000e+00
 9.023437500000000e+00 2.378906250000000e+00
 8.378906250000000e+00 3.171875000000000e+00
 9.023437500000000e+00 3.171875000000000e+00
 9.667968750000000e+00 1.784179687500000e+00
 9.667968750000000e+00 1.982421875000000e+00
 1.031250000000000e+01 1.784179687500000e+00
 1.031250000000000e+01 1.982421875000000e+00
 9.667968750000000e+00 2.378906250000000e+00
 1.031250000000000e+01 2.378906250000000e+00
 9.667968750000000e+00 3.171875000000000e+00
 1.031250000000000e+01 3.171875000000000e+00
 5.800781250000000e+00 3.964843750000000e+00
 6.445312500000000e+00 3.964843750000000e+00
 5.800781250000000e+00 4.757812500000000e+00
 6.445312500000000e+00 4.757812500000000e+00
 7.089843750000000e+00 3.964843750000000e+00
 7.734375000000000e+00 3.964843750000000e+00
 7.089843750000000e+00 4.757812500000000e+00
 7.734375000000000e+00 4.757812500000000e+00
 8.378906250000000e+00 3.964843750000000e+00
 9.023437500000000e+00 3.964843750000000e+00
 8.378906250000000e+00 4.757812500000000e+00
 9.023437500000000e+00 4.757812500000000e+00
 9.667968750000000e+00 3.964843750000000e+00
 1.031250000000000e+01 3.964843750000000e+00
 9.667968750000000e+00 4.757812500000000e+00
 1.031250000000000e+01 4.757812500000000e+00
 6.445312500000000e+00 6.343750000000000e+00
 7.734375000000000e+00 6.343750000000000e+00
 9.023437500000000e+00 6.343750000000000e+00
 1.031250000000000e+01 6.343750000000000e+00
 2.578125000000000e+00 9.515625000000000e+00
 -0.000000000000000e+00 9.515625000000000e+00
 5.156250000000000e+00 9.515625000000000e+00
 2.578125000000000e+00 1.268750000000000e+01
 -0.000000000000000e+00 1.268750000000000e+01
 5.156250000000000e+00 1.268750000000000e+01
 7.734375000000000e+00 9.515625000000000e+00
 7.734375000000000e+00 1.268750000000000e+01
 1.031250000000000e+01 9.515625000000000e+00
 1.031250000000000e+01 1.268750000000000e+01
 1.095703125000000e+01 3.964843750000000e-01
 1.095703125000000e+01 -0.000000000000000e+00
 1.160156250000000e+01 3.964843750000000e-01
 1.160156250000000e+01 -0.000000000000000e+00
 1.095703125000000e+01 7.929687500000000e-01
 1.160156250000000e+01 7.929687500000000e-01
 1.095703125000000e+01 9.912109375000000e-01
 1.095703125000000e+01 1.189453125000000e+00
 1.160156250000000e+01 9.912109375000000e-01
 1.160156250000000e+01 1.189453125000000e+00
 1.095703125000000e+01 1.387695312500000e+00
 1.095703125000000e+01 1.585937500000000e+00
 1.160156250000000e+01 1.387695312500000e+00
 1.160156250000000e+01 1.585937500000000e+00
 1.224609375000000e+01 3.964843750000000e-01
 1.224609375000000e+01 -0.000000000000000e+00
 1.289062500000000e+01 3.964843750000000e-01
 1.289062500000000e+01 -0.000000000000000e+00
 1.224609375000000e+01 7.929687500000000e-01
 1.289062500000000e+01 7.929687500000000e-01
 1.224609375000000e+01 9.912109375000000e-01
 1.224609375000000e+01 1.189453125000000e+00
 1.289062500000000e+01 9.912109375000000e-01
 1.289062500000000e+01 1.189453125000000e+00
 1.224609375000000e+01 1.387695312500000e+00
 1.224609375000000e+01 1.585937500000000e+00
 1.289062500000000e+01 1.387695312500000e+00
 1.289062500000000e+01 1.585937500000000e+00
 1.095703125000000e+01 1.784179687500000e+00
 1.095703125000000e+01 1.982421875000000e+00
 1.160156250000000e+01 1.784179687500000e+00
 1.160156250000000e+01 1.982421875000000e+00
 1.095703125000000e+01 2.378906250000000e+00
 1.160156250000000e+01 2.378906250000000e+00
 1.095703125000000e+01 3.171875000000000e+00
 1.160156250000000e+01 3.171875000000000e+00
 1.224609375000000e+01 1.784179687500000e+00
 1.224609375000000e+01 1.982421875000000e+00
 1.289062500000000e+01 1.784179687500000e+00
 1.289062500000000e+01 1.982421875000000e+00
 1.224609375000000e+01 2.378906250000000e+00
 1.289062500000000e+01 2.378906250000000e+00
 1.224609375000000e+01 3.171875000000000e+00
 1.289062500000000e+01 3.171875000000000e+00
 1.353515625000000e+01 3.964843750000000e-01
 1.353515625000000e+01 -0.000000000000000e+00
 1.417968750000000e+01 3.964843750000000e-01
 1.417968750000000e+01 -0.000000000000000e+00
 1.353515625000000e+01 7.929687500000000e-01
 1.417968750000000e+01 7.929687500000000e-01
 1.353515625000000e+01 9.912109375000000e-01
 1.353515625000000e+01 1.189453125000000e+00
 1.417968750000000e+01 9.912109375000000e-01
 1.417968750000000e+01 1.189453125000000e+00
 1.353515625000000e+01 1.387695312500000e+00
 1.353515625000000e+01 1.585937500000000e+00
 1.417968750000000e+01 1.387695312500000e+00
 1.417968750000000e+01 1.585937500000000e+00
 1.482421875000000e+01 3.964843750000000e-01
 1.482421875000000e+01 -0.000000000000000e+00
 1.546875000000000e+01 3.964843750000000e-01
 1.546875000000000e+01 -0.000000000000000e+00
 1.482421875000000e+01 7.929687500000000e-01
 1.546875000000000e+01 7.929687500000000e-01
 1.482421875000000e+01 9.912109375000000e-01
 1.482421875000000e+01 1.189453125000000e+00
 1.546875000000000e+01 9.912109375000000e-01
 1.546875000000000e+01 1.189453125000000e+00
 1.482421875000000e+01 1.387695312500000e+00
 1.482421875000000e+01 1.585937500000000e+00
 1.546875000000000e+01 1.387695312500000e+00
 1.546875000000000e+01 1.585937500000000e+00
 1.353515625000000e+01 1.784179687500000e+00
 1.353515625000000e+01 1.982421875000000e+00
 1.417968750000000e+01 1.784179687500000e+00
 1.417968750000000e+01 1.982421875000000e+00
 1.353515625000000e+01 2.378906250000000e+00
 1.417968750000000e+01 2.378906250000000e+00
 1.353515625000000e+01 3.171875000000000e+00
 1.417968750000000e+01 3.171875000000000e+00
 1.482421875000000e+01 1.784179687500000e+00
 1.482421875000000e+01 1.982421875000000e+00
 1.546875000000000e+01 1.784179687500000e+00
 1.546875000000000e+01 1.982421875000000e+00
 1.482421875000000e+01 2.378906250000000e+00
 1.546875000000000e+01 2.378906250000000e+00
 1.482421875000000e+01 3.171875000000000e+00
 1.546875000000000e+01 3.171875000000000e+00
 1.095703125000000e+01 3.964843750000000e+00
 1.160156250000000e+01 3.964843750000000e+00
 1.095703125000000e+01 4.757812500000000e+00
 1.160156250000000e+01 4.757812500000000e+00
 1.224609375000000e+01 3.964843750000000e+00
 1.289062500000000e+01 3.964843750000000e+00
 1.224609375000000e+01 4.757812500000000e+00
 1.289062500000000e+01 4.757812500000000e+00
 1.353515625000000e+01 3.964843750000000e+00
 1.417968750000000e+01 3.964843750000000e+00
 1.353515625000000e+01 4.757812500000000e+00
 1.417968750000000e+01 4.757812500000000e+00
 1.482421875000000e+01 3.964843750000000e+00
 1.546875000000000e+01 3.964843750000000e+00
 1.482421875000000e+01 4.757812500000000e+00
 1.546875000000000e+01 4.757812500000000e+00
 1.160156250000000e+01 6.343750000000000e+00
 1.289062500000000e+01 6.343750000000000e+00
 1.417968750000000e+01 6.343750000000000e+00
 1.546875000000000e+01 6.343750000000000e+00
 1.611328125000000e+01 3.964843750000000e-01
 1.611328125000000e+01 -0.000000000000000e+00
 1.675781250000000e+01 3.964843750000000e-01
 1.675781250000000e+01 -0.000000000000000e+00
 1.611328125000000e+01 7.929687500000000e-01
 1.675781250000000e+01 7.929687500000000e-01
 1.611328125000000e+01 9.912109375000000e-01
 1.611328125000000e+01 1.189453125000000e+00
 1.675781250000000e+01 9.912109375000000e-01
 1.675781250000000e+01 1.189453125000000e+00
 1.611328125000000e+01 1.387695312500000e+00
 1.611328125000000e+01 1.585937500000000e+00
 1.675781250000000e+01 1.387695312500000e+00
 1.675781250000000e+01 1.585937500000000e+00
 1.740234375000000e+01 3.964843750000000e-01
 1.740234375000000e+01 -0.000000000000000e+00
 1.804687500000000e+01 3.964843750000000e-01
 1.804687500000000e+01 -0.000000000000000e+00
 1.740234375000000e+01 7.929687500000000e-01
 1.804687500000000e+01 7.929687500000000e-01
 1.740234375000000e+01 9.912109375000000e-01
 1.740234375000000e+01 1.189453125000000e+00
 1.804687500000000e+01 9.912109375000000e-01
 1.804687500000000e+01 1.189453125000000e+00
 1.740234375000000e+01 1.387695312500000e+00
 1.740234375000000e+01 1.585937500000000e+00
 1.804687500000000e+01 1.387695312500000e+00
 1.804687500000000e+01 1.585937500000000e+00
 1.611328125000000e+01 1.784179687500000e+00
 1.611328125000000e+01 1.982421875000000e+00
 1.675781250000000e+01 1.784179687500000e+00
 1.675781250000000e+01 1.982421875000000e+00
 1.611328125000000e+01 2.378906250000000e+00
 1.675781250000000e+01 2.378906250000000e+00
 1.611328125000000e+01 3.171875000000000e+00
 1.675781250000000e+01 3.171875000000000e+00
 1.740234375000000e+01 1.784179687500000e+00
 1.740234375000000e+01 1.982421875000000e+00
 1.804687500000000e+01 1.784179687500000e+00
 1.804687500000000e+01 1.982421875000000e+00
 1.740234375000000e+01 2.378906250000000e+00
 1.804687500000000e+01 2.378906250000000e+00
 1.740234375000000e+01 3.171875000000000e+00
 1.804687500000000e+01 3.171875000000000e+00
 1.869140625000000e+01 3.964843750000000e-01
 1.869140625000000e+01 -0.000000000000000e+00
 1.933593750000000e+01 3.964843750000000e-01
 1.933593750000000e+01 -0.000000000000000e+00
 1.869140625000000e+01 7.929687500000000e-01
 1.933593750000000e+01 7.929687500000000e-01
 1.869140625000000e+01 9.912109375000000e-01
 1.869140625000000e+01 1.189453125000000e+00
 1.933593750000000e+01 9.912109375000000e-01
 1.933593750000000e+01 1.189453125000000e+00
 1.869140625000000e+01 1.387695312500000e+00
 1.869140625000000e+01 1.585937500000000e+00
 1.933593750000000e+01 1.387695312500000e+00
 1.933593750000000e+01 1.585937500000000e+00
 1.998046875000000e+01 3.964843750000000e-01
 1.998046875000000e+01 -0.000000000000000e+00
 2.062500000000000e+01 3.964843750000000e-01
 2.062500000000000e+01 -0.000000000000000e+00
 1.998046875000000e+01 7.929687500000000e-01
 2.062500000000000e+01 7.929687500000000e-01
 1.998046875000000e+01 9.912109375000000e-01
 1.998046875000000e+01 1.189453125000000e+00
 2.062500000000000e+01 9.912109375000000e-01
 2.062500000000000e+01 1.189453125000000e+00
 1.998046875000000e+01 1.387695312500000e+00
 1.998046875000000e+01 1.585937500000000e+00
 2.062500000000000e+01 1.387695312500000e+00
 2.062500000000000e+01 1.585937500000000e+00
 1.869140625000000e+01 1.784179687500000e+00
 1.869140625000000e+01 1.982421875000000e+00
 1.933593750000000e+01 1.784179687500000e+00
 1.933593750000000e+01 1.982421875000000e+00
 1.869140625000000e+01 2.378906250000000e+00
 1.933593750000000e+01 2.378906250000000e+00
 1.869140625000000e+01 3.171875000000000e+00
 1.933593750000000e+01 3.171875000000000e+00
 1.998046875000000e+01 1.784179687500000e+00
 1.998046875000000e+01 1.982421875000000e+00
 2.062500000000000e+01 1.784179687500000e+00
 2.062500000000000e+01 1.982421875000000e+00
 1.998046875000000e+01 2.378906250000000e+00
 2.062500000000000e+01 2.378906250000000e+00
 1.998046875000000e+01 3.171875000000000e+00
 2.062500000000000e+01 3.171875000000000e+00
 1.611328125000000e+01 3.964843750000000e+00
 1.675781250000000e+01 3.964843750000000e+00
 1.611328125000000e+01 4.757812500000000e+00
 1.675781250000000e+01 4.757812500000000e+00
 1.740234375000000e+01 3.964843750000000e+00
 1.804687500000000e+01 3.964843750000000e+00
 1.740234375000000e+01 4.757812500000000e+00
 1.804687500000000e+01 4.757812500000000e+00
 1.869140625000000e+01 3.964843750000000e+00
 1.933593750000000e+01 3.964843750000000e+00
 1.869140625000000e+01 4.757812500000000e+00
 1.933593750000000e+01 4.757812500000000e+00
 1.998046875000000e+01 3.964843750000000e+00
 2.062500000000000e+01 3.964843750000000e+00
 1.998046875000000e+01 4.757812500000000e+00
 2.062500000000000e+01 4.757812500000000e+00
 1.675781250000000e+01 6.343750000000000e+00
 1.804687500000000e+01 6.343750000000000e+00
 1.933593750000000e+01 6.343750000000000e+00
 2.062500000000000e+01 6.343750000000000e+00
 1.289062500000000e+01 9.515625000000000e+00
 1.546875000000000e+01 9.515625000000000e+00
 1.289062500000000e+01 1.268750000000000e+01
 1.546875000000000e+01 1.268750000000000e+01
 1.804687500000000e+01 9.515625000000000e+00
 1.804687500000000e+01 1.268750000000000e+01
 2.062500000000000e+01 9.515625000000000e+00
 2.062500000000000e+01 1.268750000000000e+01
 2.578125000000000e+00 1.585937500000000e+01
 -0.000000000000000e+00 1.585937500000000e+01
 5.156250000000000e+00 1.585937500000000e+01
 2.578125000000000e+00 1.903125000000000e+01
 -0.000000000000000e+00 1.903125000000000e+01
 5.156250000000000e+00 1.903125000000000e+01
 7.734375000000000e+00 1.585937500000000e+01
 1.031250000000000e+01 1.585937500000000e+01
 7.734375000000000e+00 1.903125000000000e+01
 1.031250000000000e+01 1.903125000000000e+01
 2.578125000000000e+00 2.220312500000000e+01
 -0.000000000000000e+00 2.220312500000000e+01
 5.156250000000000e+00 2.220312500000000e+01
 2.578125000000000e+00 2.537500000000000e+01
 -0.000000000000000e+00 2.537500000000000e+01
 5.156250000000000e+00 2.537500000000000e+01
 7.734375000000000e+00 2.220312500000000e+01
 1.031250000000000e+01 2.220312500000000e+01
 7.734375000000000e+00 2.537500000000000e+01
 1.031250000000000e+01 2.537500000000000e+01
 1.289062500000000e+01 1.585937500000000e+01
 1.546875000000000e+01 1.585937500000000e+01
 1.289062500000000e+01 1.903125000000000e+01
 1.546875000000000e+01 1.903125000000000e+01
 1.804687500000000e+01 1.585937500000000e+01
 2.062500000000000e+01 1.585937500000000e+01
 1.804687500000000e+01 1.903125000000000e+01
 2.062500000000000e+01 1.903125000000000e+01
 1.289062500000000e+01 2.220312500000000e+01
 1.546875000000000e+01 2.220312500000000e+01
 1.289062500000000e+01 2.537500000000000e+01
 1.546875000000000e+01 2.537500000000000e+01
 1.804687500000000e+01 2.220312500000000e+01
 2.062500000000000e+01 2.220312500000000e+01
 1.804687500000000e+01 2.537500000000000e+01
 2.062500000000000e+01 2.537500000000000e+01
 2.126953125000000e+01 3.964843750000000e-01
 2.126953125000000e+01 -0.000000000000000e+00
 2.191406250000000e+01 3.964843750000000e-01
 2.191406250000000e+01 -0.000000000000000e+00
 2.126953125000000e+01 7.929687500000000e-01
 2.191406250000000e+01 7.929687500000000e-01
 2.126953125000000e+01 9.912109375000000e-01
 2.126953125000000e+01 1.189453125000000e+00
 2.191406250000000e+01 9.912109375000000e-01
 2.191406250000000e+01 1.189453125000000e+00
 2.126953125000000e+01 1.387695312500000e+00
 2.126953125000000e+01 1.585937500000000e+00
 2.191406250000000e+01 1.387695312500000e+00
 2.191406250000000e+01 1.585937500000000e+00
 2.255859375000000e+01 3.964843750000000e-01
 2.255859375000000e+01 -0.000000000000000e+00
 2.320312500000000e+01 3.964843750000000e-01
 2.320312500000000e+01 -0.000000000000000e+00
 2.255859375000000e+01 7.929687500000000e-01
 2.320312500000000e+01 7.929687500000000e-01
 2.255859375000000e+01 9.912109375000000e-01
 2.255859375000000e+01 1.189453125000000e+00
 2.320312500000000e+01 9.912109375000000e-01
 2.320312500000000e+01 1.189453125000000e+00
 2.255859375000000e+01 1.387695312500000e+00
 2.255859375000000e+01 1.585937500000000e+00
 2.320312500000000e+01 1.387695312500000e+00
 2.320312500000000e+01 1.585937500000000e+00
 2.126953125000000e+01 1.784179687500000e+00
 2.126953125000000e+01 1.982421875000000e+00
 2.191406250000000e+01 1.784179687500000e+00
 2.191406250000000e+01 1.982421875000000e+00
 2.126953125000000e+01 2.378906250000000e+00
 2.191406250000000e+01 2.378906250000000e+00
 2.126953125000000e+01 3.171875000000000e+00
 2.191406250000000e+01 3.171875000000000e+00
 2.255859375000000e+01 1.784179687500000e+00
 2.255859375000000e+01 1.982421875000000e+00
 2.320312500000000e+01 1.784179687500000e+00
 2.320312500000000e+01 1.982421875000000e+00
 2.255859375000000e+01 2.378906250000000e+00
 2.320312500000000e+01 2.378906250000000e+00
 2.255859375000000e+01 3.171875000000000e+00
 2.320312500000000e+01 3.171875000000000e+00
 2.384765625000000e+01 3.964843750000000e-01
 2.384765625000000e+01 -0.000000000000000e+00
 2.449218750000000e+01 3.964843750000000e-01
 2.449218750000000e+01 -0.000000000000000e+00
 2.384765625000000e+01 7.929687500000000e-01
 2.449218750000000e+01 7.929687500000000e-01
 2.384765625000000e+01 9.912109375000000e-01
 2.384765625000000e+01 1.189453125000000e+00
 2.449218750000000e+01 9.912109375000000e-01
 2.449218750000000e+01 1.189453125000000e+00
 2.384765625000000e+01 1.387695312500000e+00
 2.384765625000000e+01 1.585937500000000e+00
 2.449218750000000e+01 1.387695312500000e+00
 2.449218750000000e+01 1.585937500000000e+00
 2.513671875000000e+01 3.964843750000000e-01
 2.513671875000000e+01 -0.000000000000000e+00
 2.578125000000000e+01 3.964843750000000e-01
 2.578125000000000e+01 -0.000000000000000e+00
 2.513671875000000e+01 7.929687500000000e-01
 2.578125000000000e+01 7.929687500000000e-01
 2.513671875000000e+01 9.912109375000000e-01
 2.513671875000000e+01 1.189453125000000e+00
 2.578125000000000e+01 9.912109375000000e-01
 2.578125000000000e+01 1.189453125000000e+00
 2.513671875000000e+01 1.387695312500000e+00
 2.513671875000000e+01 1.585937500000000e+00
 2.578125000000000e+01 1.387695312500000e+00
 2.578125000000000e+01 1.585937500000000e+00
 2.384765625000000e+01 1.784179687500000e+00
 2.384765625000000e+01 1.982421875000000e+00
 2.449218750000000e+01 1.784179687500000e+00
 2.449218750000000e+01 1.982421875000000e+00
 2.384765625000000e+01 2.378906250000000e+00
 2.449218750000000e+01 2.378906250000000e+00
 2.384765625000000e+01 3.171875000000000e+00
 2.449218750000000e+01 3.171875000000000e+00
 2.513671875000000e+01 1.784179687500000e+00
 2.513671875000000e+01 1.982421875000000e+00
 2.578125000000000e+01 1.784179687500000e+00
 2.578125000000000e+01 1.982421875000000e+00
 2.513671875000000e+01 2.378906250000000e+00
 2.578125000000000e+01 2.378906250000000e+00
 2.513671875000000e+01 3.171875000000000e+00
 2.578125000000000e+01 3.171875000000000e+00
 2.126953125000000e+01 3.964843750000000e+00
 2.191406250000000e+01 3.964843750000000e+00
 2.126953125000000e+01 4.757812500000000e+00
 2.191406250000000e+01 4.757812500000000e+00
 2.255859375000000e+01 3.964843750000000e+00
 2.320312500000000e+01 3.964843750000000e+00
 2.255859375000000e+01 4.757812500000000e+00
 2.320312500000000e+01 4.757812500000000e+00
 2.384765625000000e+01 3.964843750000000e+00
 2.449218750000000e+01 3.964843750000000e+00
 2.384765625000000e+01 4.757812500000000e+00
 2.449218750000000e+01 4.757812500000000e+00
 2.513671875000000e+01 3.964843750000000e+00
 2.578125000000000e+01 3.964843750000000e+00
 2.513671875000000e+01 4.757812500000000e+00
 2.578125000000000e+01 4.757812500000000e+00
 2.191406250000000e+01 6.343750000000000e+00
 2.320312500000000e+01 6.343750000000000e+00
 2.449218750000000e+01 6.343750000000000e+00
 2.578125000000000e+01 6.343750000000000e+00
 2.642578125000000e+01 3.964843750000000e-01
 2.642578125000000e+01 -0.000000000000000e+00
 2.707031250000000e+01 3.964843750000000e-01
 2.707031250000000e+01 -0.000000000000000e+00
 2.642578125000000e+01 7.929687500000000e-01
 2.707031250000000e+01 7.929687500000000e-01
 2.642578125000000e+01 9.912109375000000e-01
 2.642578125000000e+01 1.189453125000000e+00
 2.707031250000000e+01 9.912109375000000e-01
 2.707031250000000e+01 1.189453125000000e+00
 2.642578125000000e+01 1.387695312500000e+00
 2.642578125000000e+01 1.585937500000000e+00
 2.707031250000000e+01 1.387695312500000e+00
 2.707031250000000e+01 1.585937500000000e+00
 2.771484375000000e+01 3.964843750000000e-01
 2.771484375000000e+01 -0.000000000000000e+00
 2.835937500000000e+01 3.964843750000000e-01
 2.835937500000000e+01 -0.000000000000000e+00
 2.771484375000000e+01 7.929687500000000e-01
 2.835937500000000e+01 7.929687500000000e-01
 2.771484375000000e+01 9.912109375000000e-01
 2.771484375000000e+01 1.189453125000000e+00
 2.835937500000000e+01 9.912109375000000e-01
 2.835937500000000e+01 1.189453125000000e+00
 2.771484375000000e+01 1.387695312500000e+00
 2.771484375000000e+01 1.585937500000000e+00
 2.835937500000000e+01 1.387695312500000e+00
 2.835937500000000e+01 1.585937500000000e+00
 2.642578125000000e+01 1.784179687500000e+00
 2.642578125000000e+01 1.982421875000000e+00
 2.707031250000000e+01 1.784179687500000e+00
 2.707031250000000e+01 1.982421875000000e+00
 2.642578125000000e+01 2.378906250000000e+00
 2.707031250000000e+01 2.378906250000000e+00
 2.642578125000000e+01 3.171875000000000e+00
 2.707031250000000e+01 3.171875000000000e+00
 2.771484375000000e+01 1.784179687500000e+00
 2.771484375000000e+01 1.982421875000000e+00
 2.835937500000000e+01 1.784179687500000e+00