% Model:              prototipo thgem_Garfield_2_1_light_3.mph
% Version:            COMSOL 5.1.0.234
% Date:               Sep 30 2020, 18:40
% Dimension:          3
% Nodes:              14326
% Expressions:        1
% Description:        Electric potential
% Length unit:        mm
% x             y              z              V (V)
0.0000          -0.0093782     1.0000         -200.00
0.035000        -0.0093782     1.0000         -200.00
0.017285        -0.0093782     0.97724        -198.60
0.070000        -0.0093782     1.0000         -200.00
0.052285        -0.0093782     0.97724        -198.60
0.034570        -0.0093782     0.95447        -197.21
0.017445        0.010864       1.0000         -200.00
0.052445        0.010864       1.0000         -200.00
0.034730        0.010864       0.97724        -198.60
0.034891        0.031106       1.0000         -200.00
0.017445        0.041094       1.0000         -200.00
0.034949        0.051277       1.0000         -200.00
-3.7022E-18     0.051083       1.0000         -200.00
0.017503        0.061265       1.0000         -200.00
0.035007        0.071448       1.0000         -200.00
0.017445        0.051009       0.98071        -198.82
-4.3093E-18     0.060998       0.98071        -198.82
0.017503        0.071180       0.98071        -198.82
-4.9164E-18     0.070913       0.96142        -197.63
0.0000          0.11187        1.0000         -200.00
0.017503        0.091656       1.0000         -200.00
-1.8511E-18     0.081474       1.0000         -200.00
-2.4582E-18     0.091389       0.98071        -198.82
-1.8511E-18     0.020852       1.0000         -200.00
-1.2332E-18     0.010761       0.98091        -198.83
-3.0843E-18     0.040991       0.98091        -198.83
0.017445        0.031003       0.98091        -198.83
-2.4663E-18     0.030900       0.96181        -197.66
0.017285        0.010761       0.95814        -197.43
-3.6914E-18     0.050906       0.96161        -197.64
0.070000        0.021013       1.0000         -200.00
0.052445        0.041255       1.0000         -200.00
0.070000        0.051404       1.0000         -200.00
0.070000        0.010099       0.98153        -198.87
0.052445        0.030341       0.98153        -198.87
0.070000        0.040490       0.98153        -198.87
0.070000        0.029576       0.96305        -197.73
0.052285        0.010099       0.95876        -197.47
0.070000        -0.0093782     0.96774        -198.02
0.070000        -0.0093782     0.93547        -196.04
0.052285        -0.0093782     0.94497        -196.62
0.070000        0.010099       0.94926        -196.89
0.034945        0.041076       0.97194        -198.28
0.017499        0.040973       0.95285        -197.11
0.017499        0.060979       0.95265        -197.09
0.034999        0.051046       0.94388        -196.56
0.052499        0.020834       0.93968        -196.30
0.034784        0.020834       0.94918        -196.88
0.052499        0.040311       0.95347        -197.14
0.035003        0.061247       0.97194        -198.28
0.052445        0.050989       0.98136        -198.86
0.070000        0.070872       0.96273        -197.71
0.070000        0.061138       0.98136        -198.86
0.070000        0.050224       0.96289        -197.72
0.052503        0.071160       0.98136        -198.86
0.052499        0.060959       0.95331        -197.13
0.052503        0.061426       1.0000         -200.00
0.017729        0.11187        0.97710        -198.59
0.035458        0.11187        0.95419        -197.19
0.035233        0.091656       0.97710        -198.59
0.017729        0.091389       0.95780        -197.41
0.052503        0.091656       1.0000         -200.00
0.052729        0.11187        0.97710        -198.59
0.070000        0.11187        1.0000         -200.00
0.052729        0.091369       0.95846        -197.45
0.070000        0.091369       0.98136        -198.86
0.035000        0.11187        1.0000         -200.00
0.070000        0.081635       1.0000         -200.00
0.0000          0.11187        0.96775        -198.02
0.0000          0.11187        0.93549        -196.04
0.017729        0.11187        0.94484        -196.61
-2.4582E-18     0.091389       0.94845        -196.84
0.035229        0.081456       0.94904        -196.87
0.017499        0.081456       0.93969        -196.30
0.052268        -0.0093782     0.91879        -195.02
0.034537        -0.0093782     0.90211        -193.99
0.034553        -0.0093782     0.92829        -195.60
0.034768        0.020834       0.92300        -195.27
0.0000          -0.0093782     0.96863        -198.07
0.017285        -0.0093782     0.94587        -196.68
0.0000          -0.0093782     0.93726        -196.15
-1.2332E-18     0.010761       0.94954        -196.90
0.017268        -0.0093782     0.91969        -195.07
0.017499        0.020834       0.94057        -196.35
-3.6466E-18     0.050175       0.90391        -194.10
-3.0565E-18     0.040537       0.93286        -195.88
-1.8233E-18     0.020398       0.92059        -195.13
0.017499        0.050610       0.92390        -195.33
-4.2815E-18     0.060544       0.93266        -195.87
0.017268        0.020398       0.90301        -194.05
-1.8233E-18     0.081020       0.91970        -195.07
0.070000        0.021301       0.92106        -195.16
0.070000        0.051981       0.90665        -194.27
0.052268        0.021301       0.90438        -194.13
0.052499        0.051514       0.92527        -195.41
0.070000        -0.0093782     0.90103        -193.93
0.070000        0.021301       0.88662        -193.04
0.070000        -0.0093782     0.86659        -191.81
0.052268        -0.0093782     0.88435        -192.90
0.070000        0.040779       0.93485        -196.00
0.070000        0.061427       0.93469        -195.99
0.035537        0.11187        0.89968        -193.84
0.035498        0.11187        0.92694        -195.52
0.017768        0.11187        0.91759        -194.94
0.035268        0.081456       0.92178        -195.20
0.017768        0.081020       0.90179        -193.97
0.052729        0.11187        0.94577        -196.67
0.070000        0.11187        0.93734        -196.15
0.070000        0.091369       0.95003        -196.93
0.052499        0.081456       0.94061        -196.36
0.052768        0.11187        0.91851        -195.00
0.070000        0.081923       0.92200        -195.21
0.070000        0.11187        0.96867        -198.08
0.052768        0.081923       0.90316        -194.06
0.0000          0.11187        0.86664        -191.81
0.017768        0.11187        0.88316        -192.83
0.0000          0.11187        0.90107        -193.93
-1.8233E-18     0.081020       0.88527        -192.96
0.052196        -0.0093782     0.85775        -191.27
0.052196        0.021301       0.87778        -192.50
0.034391        -0.0093782     0.84891        -190.73
0.034464        -0.0093782     0.87551        -192.36
0.017196        0.020398       0.87641        -192.41
0.035000        0.051078       0.90528        -194.19
0.0000          -0.0093782     0.87036        -192.04
0.017196        -0.0093782     0.85964        -191.39
-1.8233E-18     0.020398       0.88714        -193.07
0.017268        -0.0093782     0.88624        -193.02
0.0000          -0.0093782     0.90381        -194.10
-1.9138E-18     0.082498       0.85039        -190.82
0.017768        0.082498       0.86691        -191.83
-3.7371E-18     0.051653       0.86902        -191.96
-3.8276E-18     0.053130       0.83413        -189.82
-1.9138E-18     0.021876       0.85225        -190.93
0.017196        0.021876       0.84152        -190.27
0.070000        0.020501       0.85060        -190.83
0.070000        -0.0093782     0.83199        -189.69
0.070000        0.050381       0.83460        -189.85
0.070000        0.020501       0.81600        -188.71
0.070000        -0.0093782     0.79740        -187.57
0.052196        0.020501       0.84176        -190.29
0.052196        -0.0093782     0.82316        -189.15
0.035000        0.050278       0.86926        -191.98
0.052768        0.081123       0.86714        -191.85
0.070000        0.051181       0.87063        -192.06
0.035000        0.051756       0.83437        -189.83
0.017769        0.11187        0.85013        -190.80
0.035537        0.11187        0.83362        -189.79
0.035537        0.11187        0.86665        -191.82
0.017769        0.082498       0.83388        -189.80
0.052769        0.081123       0.83411        -189.82
0.052768        0.11187        0.88510        -192.95
0.070000        0.11187        0.87052        -192.05
0.070000        0.11187        0.90393        -194.10
0.070000        0.081923       0.88859        -193.16
0.070000        0.081123       0.85256        -190.95
0.052769        0.11187        0.85207        -190.92
0.0000          0.11187        0.79747        -187.57
0.017769        0.11187        0.81555        -188.68
0.0000          0.11187        0.83205        -189.69
-1.9138E-18     0.082498       0.81580        -188.69
0.0000          -0.0093782     0.83674        -189.98
0.0000          -0.0093782     0.80312        -187.92
-1.9138E-18     0.021876       0.81863        -188.87
0.017196        -0.0093782     0.82602        -189.32
0.035000        -0.0093782     0.80026        -187.74
0.035000        0.020501       0.81886        -188.88
0.035000        0.020400       0.78508        -186.81
0.070000        0.050177       0.76703        -185.70
0.070000        0.020400       0.78222        -186.63
0.017418        -0.0093782     0.77749        -186.34
0.052418        0.020400       0.75944        -185.24
0.052418        -0.0093782     0.77462        -186.17
0.034837        -0.0093782     0.75185        -184.77
0.035000        0.051654       0.80058        -187.76
0.070000        0.050279       0.80082        -187.78
-1.9112E-18     0.021834       0.78481        -186.79
-3.8250E-18     0.053089       0.80032        -187.74
0.035000        0.051612       0.76677        -185.69
-3.8225E-18     0.053047       0.76650        -185.67
0.017418        0.021834       0.75917        -185.22
0.070000        -0.0093782     0.76280        -185.44
0.070000        0.020400       0.74762        -184.51
0.070000        -0.0093782     0.72821        -183.32
0.052418        -0.0093782     0.74003        -184.04
0.052769        0.081021       0.80033        -187.75
0.035572        0.11187        0.76642        -185.66
0.017786        0.11187        0.78194        -186.62
0.017786        0.082498       0.80028        -187.74
0.035555        0.11187        0.80002        -187.73
0.052786        0.081021       0.76673        -185.68
0.017786        0.082456       0.76646        -185.67
-1.9112E-18     0.082456       0.78198        -186.62
0.052786        0.11187        0.78489        -186.80
0.070000        0.11187        0.80336        -187.93
0.052769        0.11187        0.81849        -188.86
0.070000        0.081021       0.78519        -186.82
0.070000        0.11187        0.83694        -189.99
0.070000        0.081123       0.81898        -188.89
0.0000          0.11187        0.72830        -183.32
0.017786        0.11187        0.74736        -184.49
0.0000          0.11187        0.76288        -185.45
-1.9112E-18     0.082456       0.74740        -184.50
0.0000          -0.0093782     0.76950        -185.85
0.0000          -0.0093782     0.73588        -183.79
-1.9112E-18     0.021834       0.75119        -184.73
0.017418        -0.0093782     0.74386        -184.28
0.017261        -0.0093782     0.71576        -182.55
-1.8992E-18     0.021638       0.71637        -182.59
0.034522        -0.0093782     0.69563        -181.32
0.017261        0.021638       0.69625        -181.36
-3.7984E-18     0.052655       0.69687        -181.40
0.034679        -0.0093782     0.72374        -183.04
0.017418        0.021638       0.72436        -183.08
-3.8104E-18     0.052851       0.73168        -183.53
0.070000        0.050077       0.73277        -183.60
0.035000        0.051512       0.73250        -183.58
0.070000        0.049976       0.69850        -181.50
0.052418        0.020299       0.72518        -183.13
0.070000        0.020299       0.71335        -182.41
0.052261        -0.0093782     0.71192        -182.32
0.052261        0.020299       0.69707        -181.41
0.070000        -0.0093782     0.69361        -181.20
0.070000        -0.0093782     0.65901        -179.07
0.052261        -0.0093782     0.67732        -180.20
0.070000        0.020299       0.67876        -180.28
0.052786        0.080921       0.73246        -183.58
0.035000        0.051315       0.69768        -181.45
0.035561        0.11187        0.73302        -183.61
0.052775        0.080921       0.69906        -181.53
0.017775        0.082456       0.73306        -183.62
0.035549        0.11187        0.69962        -181.56
0.017775        0.082260       0.69824        -181.48
0.017775        0.11187        0.71396        -182.44
-1.8992E-18     0.082260       0.71258        -182.36
0.052786        0.11187        0.75131        -184.74
0.070000        0.11187        0.73619        -183.81
0.070000        0.080921       0.71735        -182.65
0.052775        0.11187        0.71790        -182.69
0.070000        0.11187        0.76977        -185.87
0.070000        0.081021       0.75161        -184.76
0.0000          0.11187        0.65913        -179.08
0.017775        0.11187        0.67937        -180.32
0.0000          0.11187        0.69371        -181.20
-1.8992E-18     0.082260       0.67800        -180.24
0.0000          -0.0093782     0.70225        -181.73
0.017261        -0.0093782     0.68213        -180.49
0.0000          -0.0093782     0.66863        -179.66
-1.8992E-18     0.021638       0.68275        -180.53
-1.8670E-18     0.021111       0.64859        -178.43
-3.7662E-18     0.052128       0.66271        -179.30
0.017261        0.021111       0.66209        -179.26
-3.7339E-18     0.051601       0.62855        -177.20
0.017362        -0.0093782     0.64886        -178.45
0.034623        -0.0093782     0.66237        -179.28
0.034724        -0.0093782     0.62910        -177.24
0.017362        0.021111       0.62882        -177.22
0.052261        0.019573       0.66349        -179.35
0.070000        0.048525       0.63134        -177.37
0.035000        0.050590       0.66410        -179.38
0.070000        0.049251       0.66492        -179.43
0.035000        0.050063       0.62994        -177.29
0.052362        0.019573       0.63022        -177.30
0.070000        -0.0093782     0.62442        -176.95
0.052362        -0.0093782     0.64405        -178.15
0.070000        -0.0093782     0.58982        -174.83
0.052362        -0.0093782     0.60946        -176.03
0.070000        0.019573       0.64518        -178.22
0.070000        0.019573       0.61058        -176.10
0.052460        0.0058168      0.58862        -174.75
0.034821        0.0058168      0.60825        -175.96
0.052460        0.034768       0.60938        -176.03
0.034919        0.021012       0.58741        -174.68
0.036005        0.11187        0.64192        -178.02
0.035777        0.11187        0.67077        -179.79
0.018003        0.11187        0.65052        -178.55
0.018003        0.082260       0.66939        -179.71
0.018003        0.081733       0.63523        -177.61
-1.8670E-18     0.081733       0.64384        -178.14
0.053003        0.080195       0.63663        -177.70
0.053003        0.080921       0.67021        -179.76
0.052775        0.11187        0.68432        -180.63
0.070000        0.11187        0.66903        -179.69
0.070000        0.11187        0.70261        -181.75
0.070000        0.080921       0.68376        -180.59
0.053003        0.11187        0.65547        -178.85
0.070000        0.080195       0.65018        -178.53
0.0000          0.11187        0.58996        -174.83
0.018003        0.11187        0.61594        -176.43
0.0000          0.11187        0.62455        -176.96
-1.8670E-18     0.081733       0.60925        -176.02
0.0000          -0.0093782     0.63501        -177.60
0.017362        -0.0093782     0.61524        -176.39
0.0000          -0.0093782     0.60139        -175.54
-1.8670E-18     0.021111       0.61497        -176.37
0.017460        0.0058168      0.59440        -175.11
0.017460        0.036306       0.60798        -175.94
0.034665        -0.0093782     0.56102        -173.06
0.034694        -0.0093782     0.59506        -175.15
0.052332        -0.0093782     0.57542        -173.94
0.034792        0.0058168      0.57422        -173.87
0.017332        -0.0093782     0.58121        -174.30
-1.8942E-18     0.021557       0.58113        -174.29
-3.7884E-18     0.052492       0.56086        -173.05
-3.7612E-18     0.052046       0.59470        -175.13
0.017460        0.036752       0.57414        -173.86
0.017332        0.021557       0.56094        -173.05
0.070000        -0.0093782     0.55522        -172.70
0.070000        -0.0093782     0.52063        -170.58
0.052332        -0.0093782     0.54083        -171.82
0.070000        0.019457       0.57653        -174.01
0.070000        0.019457       0.54193        -171.89
0.052332        0.019457       0.56213        -173.13
0.070000        0.048293       0.56324        -173.19
0.035000        0.049947       0.59589        -175.20
0.035000        0.050393       0.56205        -173.12
0.052460        0.034653       0.57532        -173.94
0.035000        0.080079       0.57660        -174.01
-1.8942E-18     0.082179       0.57541        -173.94
0.070000        0.048409       0.59729        -175.28
0.052464        0.010362       0.52479        -170.83
0.034797        0.010362       0.54499        -172.07
0.052464        0.039198       0.54609        -172.14
0.034929        0.030102       0.52895        -171.09
0.034923        0.11187        0.54815        -172.27
0.052462        0.080079       0.55569        -172.73
0.017462        0.11187        0.56906        -173.55
0.017462        0.082179       0.55451        -172.66
0.070000        0.080079       0.58255        -174.38
0.035000        0.11187        0.59591        -175.20
0.035000        0.081733       0.61520        -176.38
0.070000        0.11187        0.60186        -175.56
0.053003        0.11187        0.62189        -176.79
0.070000        0.080195       0.61660        -176.47
0.052462        0.11187        0.57501        -173.92
0.070000        0.11187        0.63544        -177.63
0.0000          0.11187        0.52079        -170.59
0.017462        0.11187        0.53447        -171.43
0.0000          0.11187        0.55538        -172.71
-1.8942E-18     0.082179       0.54083        -171.82
0.0000          -0.0093782     0.53414        -171.41
-1.8942E-18     0.021557       0.54750        -172.23
0.017332        -0.0093782     0.54758        -172.23
0.017464        0.010362       0.53155        -171.25
0.017464        0.041297       0.54491        -172.07
0.0000          -0.0093782     0.56777        -173.47
0.034768        -0.0093782     0.49306        -168.89
0.034716        -0.0093782     0.52704        -170.97
0.052384        -0.0093782     0.50684        -169.73
0.034848        0.010362       0.51100        -169.99
0.017384        -0.0093782     0.51360        -170.15
0.017462        0.082961       0.52069        -170.58
-3.8364E-18     0.053275       0.52704        -170.97
-1.9422E-18     0.082961       0.50701        -169.74
-3.8843E-18     0.054057       0.49323        -168.90
-1.9422E-18     0.022340       0.51368        -170.15
0.017384        0.022340       0.49314        -168.89
0.017464        0.042080       0.51109        -169.99
0.034926        0.070984       0.53855        -171.68
0.070000        -0.0093782     0.48603        -168.46
0.070000        -0.0093782     0.45144        -166.33
0.052384        -0.0093782     0.47225        -167.61
0.070000        0.018786       0.50759        -169.78
0.070000        0.018786       0.47299        -167.66
0.052384        0.018786       0.49381        -168.93
0.070000        0.046950       0.49455        -168.98
0.052464        0.038526       0.51175        -170.03
0.070000        0.047622       0.52889        -171.09
0.052462        0.079408       0.52135        -170.62
0.052518        0.010618       0.45797        -166.73
0.034902        0.010618       0.47878        -168.01
0.052518        0.038783       0.47952        -168.06
0.035037        0.030615       0.46450        -167.13
0.035456        0.11187        0.49366        -168.92
0.035190        0.11187        0.52091        -170.60
0.017728        0.11187        0.50723        -169.76
0.017728        0.082961       0.49344        -168.91
0.052728        0.079408       0.49411        -168.95
0.035000        0.050504       0.49389        -168.94
0.052462        0.11187        0.54142        -171.86
0.070000        0.11187        0.53470        -171.44
0.070000        0.11187        0.56828        -173.50
0.070000        0.080079       0.54897        -172.32
0.052728        0.11187        0.51418        -170.18
0.070000        0.079408       0.51462        -170.21
0.0000          0.11187        0.45162        -166.34
0.017728        0.11187        0.47264        -167.63
0.0000          0.11187        0.48621        -168.47
-1.9422E-18     0.082961       0.47242        -167.62
0.0000          -0.0093782     0.50052        -169.34
-1.9422E-18     0.022340       0.48006        -168.09
0.017384        -0.0093782     0.47998        -168.08
0.0000          -0.0093782     0.46690        -167.28
0.017518        0.010618       0.46570        -167.21
0.017518        0.042336       0.47886        -168.02
0.017349        -0.0093782     0.44588        -165.99
0.034733        -0.0093782     0.45896        -166.79
0.034697        -0.0093782     0.42486        -164.70
0.034867        0.010618       0.44468        -165.92
0.052349        -0.0093782     0.43815        -165.52
-1.9564E-18     0.022573       0.44649        -166.03
-3.9129E-18     0.054524       0.42608        -164.78
-3.8986E-18     0.054291       0.45965        -166.84
0.017518        0.042569       0.44529        -165.95
0.017349        0.022573       0.42547        -164.74
0.036219        0.11187        0.43911        -165.58
0.053109        0.079408       0.46683        -167.28
0.035837        0.11187        0.46639        -167.25
0.018109        0.082961       0.46617        -167.24
0.018109        0.083195       0.43260        -165.18
0.035628        0.071240       0.45180        -166.35
0.018109        0.11187        0.44537        -165.96
-1.9564E-18     0.083195       0.43885        -165.56
0.070000        -0.0093782     0.41684        -164.21
0.070000        -0.0093782     0.38224        -162.09
0.052349        -0.0093782     0.40355        -163.39
0.070000        0.018438       0.43966        -165.61
0.070000        0.018438       0.40506        -163.49
0.052349        0.018438       0.42637        -164.79
0.070000        0.046254       0.42788        -164.89
0.052518        0.038435       0.44619        -166.01
0.070000        0.046602       0.46122        -166.93
0.053109        0.079060       0.43350        -165.23
0.053109        0.11187        0.45332        -166.45
0.070000        0.079060       0.44771        -166.10
0.070000        0.11187        0.46753        -167.32
0.070000        0.079408       0.48104        -168.15
0.052728        0.11187        0.48060        -168.12
0.070000        0.11187        0.50111        -169.38
0.0000          0.11187        0.38245        -162.10
0.018109        0.11187        0.41078        -163.84
0.0000          0.11187        0.41704        -164.22
-1.9564E-18     0.083195       0.40427        -163.44
0.017349        -0.0093782     0.41226        -163.93
0.0000          -0.0093782     0.43328        -165.22
-1.9564E-18     0.022573       0.41287        -163.96
0.0000          -0.0093782     0.39966        -163.15
0.017349        0.023369       0.39023        -162.58
-3.9616E-18     0.055320       0.39084        -162.61
-4.0104E-18     0.056117       0.35560        -160.45
-2.0052E-18     0.023369       0.37763        -161.80
0.034649        -0.0093782     0.39089        -162.62
0.017300        0.023369       0.35625        -160.49
0.034600        -0.0093782     0.35691        -160.53
0.017300        -0.0093782     0.37828        -161.84
0.070000        -0.0093782     0.34765        -159.96
0.052300        -0.0093782     0.36958        -161.31
0.070000        -0.0093782     0.31305        -157.84
0.052300        -0.0093782     0.33498        -159.18
0.070000        0.017052       0.37021        -161.35
0.070000        0.017052       0.33561        -159.22
0.052300        0.017052       0.35754        -160.57
0.070000        0.043483       0.35817        -160.61
0.052349        0.017052       0.39152        -162.65
0.070000        0.044869       0.39303        -162.75
0.035000        0.049800       0.35689        -160.53
0.035000        0.049003       0.39213        -162.69
0.052445        0.0093093      0.31711        -158.09
0.034745        0.0093093      0.33904        -159.43
0.052445        0.035740       0.33967        -159.47
0.034889        0.027997       0.32117        -158.34
0.035000        0.050389       0.42698        -164.83
0.053109        0.11187        0.41974        -164.39
0.070000        0.11187        0.40037        -163.20
0.070000        0.11187        0.43395        -165.26
0.070000        0.079060       0.41412        -164.04
0.070000        0.077674       0.37927        -161.90
0.035000        0.083195       0.41322        -163.99
-2.0052E-18     0.083991       0.36903        -161.27
0.035000        0.11187        0.39141        -162.65
0.035000        0.083991       0.37798        -161.82
0.034640        0.11187        0.34335        -159.70
0.052320        0.11187        0.37186        -161.45
0.017320        0.11187        0.36290        -160.90
0.017320        0.083991       0.34948        -160.07
0.052320        0.077674       0.35076        -160.15
0.0000          0.11187        0.31329        -157.85
0.017320        0.11187        0.32832        -158.78
0.0000          0.11187        0.34787        -159.98
-2.0052E-18     0.083991       0.33444        -159.15
0.017300        -0.0093782     0.34466        -159.78
0.0000          -0.0093782     0.33241        -159.03
0.0000          -0.0093782     0.36603        -161.09
-2.0052E-18     0.023369       0.34401        -159.74
0.017445        0.0093093      0.32679        -158.68
0.017445        0.042057       0.33838        -159.39
0.034471        -0.0093782     0.28940        -156.39
0.034536        -0.0093782     0.32315        -158.46
0.052236        -0.0093782     0.30123        -157.11
0.034680        0.0093093      0.30528        -157.36
0.017236        -0.0093782     0.31091        -157.71
-3.9276E-18     0.054764       0.27635        -155.59
-3.9690E-18     0.055441       0.31598        -158.02
-1.9638E-18     0.022693       0.30438        -157.31
0.017445        0.041381       0.29876        -156.96
0.017236        0.022693       0.28288        -155.99
0.018956        0.067234       0.33559        -159.22
0.036401        0.053174       0.31837        -158.16
0.018956        0.066558       0.29596        -156.79
0.037912        0.078351       0.31557        -157.99
-1.9638E-18     0.083315       0.29482        -156.72
0.018956        0.095108       0.31443        -157.92
0.036276        0.095108       0.32946        -158.85
0.070000        -0.0093782     0.27846        -155.72
0.070000        -0.0093782     0.24387        -153.59
0.052236        -0.0093782     0.26664        -154.99
0.070000        0.020248       0.30642        -157.43
0.070000        0.020248       0.27183        -155.31
0.052236        0.020248       0.29459        -156.71
0.070000        0.049874       0.29979        -157.02
0.052445        0.038936       0.31048        -157.68
0.070000        0.046679       0.32898        -158.82
0.053956        0.060917       0.33687        -159.30
0.053956        0.064113       0.30768        -157.51
0.017700        0.11187        0.30033        -157.06
0.035399        0.11187        0.28736        -156.26
0.035020        0.11187        0.31536        -157.98
0.036655        0.095108       0.30147        -157.13
0.017700        0.083315       0.28186        -155.92
0.052320        0.11187        0.33828        -159.39
0.070000        0.11187        0.33320        -159.08
0.070000        0.11187        0.36678        -161.14
0.070000        0.077674       0.34569        -159.84
0.052700        0.11187        0.31028        -157.67
0.053956        0.095108       0.32439        -158.53
0.070000        0.080870       0.31649        -158.05
0.0000          0.11187        0.24413        -153.61
0.017700        0.11187        0.26575        -154.93
0.0000          0.11187        0.27871        -155.73
-1.9638E-18     0.083315       0.26024        -154.60
0.017236        -0.0093782     0.27728        -155.64
0.0000          -0.0093782     0.29879        -156.96
-1.9638E-18     0.022693       0.27076        -155.24
0.0000          -0.0093782     0.26517        -154.90
0.017567        0.022693       0.24950        -153.94
0.017567        -0.0093782     0.24391        -153.59
0.035134        -0.0093782     0.22265        -152.29
0.034803        -0.0093782     0.25602        -154.34
-3.1363E-18     0.041842       0.25053        -154.00
0.017567        0.0097704      0.22368        -152.35
-1.1725E-18     0.0097704      0.24494        -153.66
-2.3450E-18     0.028919       0.22471        -152.42
0.052236        0.026883       0.26692        -155.01
0.070000        0.063145       0.24443        -153.63
0.035000        0.058954       0.26039        -154.61
0.070000        0.056510       0.27211        -155.33
0.035000        0.052319       0.28807        -156.30
0.052567        0.026883       0.23354        -152.96
0.052567        -0.0093782     0.23326        -152.94