DF-ISE text

Info {
  version = 1.0
  type    = dataset
  dimension   = 3
  nb_vertices = 32
  nb_edges    = 115
  nb_faces    = 138
  nb_elements = 58
  nb_regions  = 3
  datasets    = [ "ElectrostaticPotential" "eDensity" "hDensity" "LatticeTemperature" "eCurrentDensity-Vector" "hCurrentDensity-Vector" "SpaceCharge" "ElectricField-Vector" "eMobility" "hMobility" ]
  functions   = [ ElectrostaticPotential eDensity hDensity LatticeTemperature eCurrentDensity hCurrentDensity SpaceCharge ElectricField eMobility hMobility ]
}

Data {

  Dataset ("ElectrostaticPotential") {
    function  = ElectrostaticPotential
    type      = scalar
    dimension = 1
    location  = vertex
    validity  = [ "substrate" ]
    Values (32) {
 1.2673818442270379e-01 1.2673818442270379e-01 -6.7139116730005730e+00 -6.7139674039200701e+00 1.2673818442270379e-01 1.2673818442270379e-01 -6.7139876313546063e+00 -6.7138750936180251e+00 -1.0046128354151438e+02 -1.0046128354142576e+02
 -1.0046128354147561e+02 -1.0046128354140795e+02 -1.0046128358123188e+02 -1.0046128358123188e+02 -1.0046128358123188e+02 -1.0046128358123188e+02 -4.6017818821906289e+00 -1.0046128354075979e+02 -4.6016530175007233e+00 -1.0046128354075933e+02
 -1.0046128354075930e+02 -1.0046128354073583e+02 -4.6016512474290119e+00 -4.6016509601242745e+00 -4.6017180983590249e+00 -4.6017421363917670e+00 -1.0046128354082765e+02 -4.6017439114337293e+00 -1.0046128354073947e+02 -1.0046128354078336e+02
 -4.6017489265836744e+00 -1.0046128354077936e+02
    }
  }

  Dataset ("eDensity") {
    function  = eDensity
    type      = scalar
    dimension = 1
    location  = vertex
    validity  = [ "substrate" ]
    Values (32) {
 1.0000438835260210e+12 1.0000438835260210e+12 6.5421715452701915e+06 6.2735223676773570e+06 1.0000438835260210e+12 1.0000438835260210e+12 6.2742932612426253e+06 6.1468645196498567e+06 7.5555314778421883e+00 6.3163249320071122e+00
 7.5538152495830131e+00 5.7143910839529060e+00 1.3784808615850585e+02 1.3784808615850585e+02 1.3784808615850585e+02 1.3784808615850585e+02 6.0286755660003955e+06 1.2803459599904015e+01 5.9020726300354945e+06 1.2803585113031152e+01
 1.2803459566214736e+01 5.9074715870868353e+00 5.9292557364731375e+06 5.9291994283537464e+06 6.0918533231860455e+06 6.8785067493359474e+06 7.3782823639630184e+00 6.8785549584379541e+06 8.9895173262525123e+00 8.9897003595497065e+00
 5.8428043552790498e+06 8.9897002246227462e+00
    }
  }

  Dataset ("hDensity") {
    function  = hDensity
    type      = scalar
    dimension = 1
    location  = vertex
    validity  = [ "substrate" ]
    Values (32) {
 4.3883526009210549e+07 4.3883526009210549e+07 1.9012216007695645e+07 1.8921602265217550e+07 4.3883526009210549e+07 4.3883526009210549e+07 1.7848504164985958e+07 1.9769911172158927e+07 9.9999845370124262e+17 9.9999845370032346e+17
 9.9999845370157645e+17 9.9999845369972019e+17 9.9999999999992947e+17 9.9999999999992947e+17 9.9999999999992947e+17 9.9999999999992947e+17 2.1801885716798160e+07 9.9999841886001779e+17 4.1444453411336370e+07 9.9999841886004698e+17
 9.9999841886001293e+17 9.9999841886217254e+17 4.1235943827621087e+07 4.1236061947545454e+07 3.0929051752752703e+07 2.8626621669861205e+07 9.9999841886162893e+17 2.8626615213013303e+07 9.9999841886112038e+17 9.9999841886151693e+17
 2.6722530848497387e+07 9.9999841886154624e+17
    }
  }

  Dataset ("LatticeTemperature") {
    function  = LatticeTemperature
    type      = scalar
    dimension = 1
    location  = vertex
    validity  = [ "substrate" ]
    Values (32) {
 2.9314999999999998e+02 2.9314999999999998e+02 2.9314999999999998e+02 2.9314999999999998e+02 2.9314999999999998e+02 2.9314999999999998e+02 2.9314999999999998e+02 2.9314999999999998e+02 2.9314999999999998e+02 2.9314999999999998e+02
 2.9314999999999998e+02 2.9314999999999998e+02 2.9314999999999998e+02 2.9314999999999998e+02 2.9314999999999998e+02 2.9314999999999998e+02 2.9314999999999998e+02 2.9314999999999998e+02 2.9314999999999998e+02 2.9314999999999998e+02
 2.9314999999999998e+02 2.9314999999999998e+02 2.9314999999999998e+02 2.9314999999999998e+02 2.9314999999999998e+02 2.9314999999999998e+02 2.9314999999999998e+02 2.9314999999999998e+02 2.9314999999999998e+02 2.9314999999999998e+02
 2.9314999999999998e+02 2.9314999999999998e+02
    }
  }

  Dataset ("eCurrentDensity-Vector") {
    function  = eCurrentDensity
    type      = vector
    dimension = 3
    location  = vertex
    validity  = [ "substrate" ]
    Values (96) {
 4.6281679381212774e-08 -4.9819621005304339e-08 7.3957732486674678e-11 3.8268184469555263e-08 4.8873487967499128e-08 5.5255850916924455e-11 1.7412585313153572e-07 -1.7182449841033682e-07 2.7340700864049025e-11 -2.4253346239115187e-07
 -3.2153434866363278e-07 3.5736122724331441e-12 -2.3418567383867686e-08 4.5567629875246892e-08 3.1254643010315279e-11 -2.3409991351994487e-08 -4.5566900380979473e-08 4.9922980124698067e-11 -2.4695806038532438e-07 3.2154401862061243e-07
 3.3204698996893123e-12 3.2165399699044072e-07 3.2165611196457270e-07 3.0001078822380628e-12 -3.4636429575224311e-08 -8.5015319754826320e-08 6.9507111795522490e-12 3.2504002986143403e-08 -3.2503004161542508e-08 2.6349001970262648e-12
 -3.4640990028725444e-08 8.5015951884842122e-08 6.9504140102892382e-12 1.0721799165776573e-07 1.0721869664914307e-07 2.9272616977223089e-12 2.0951483700716318e-15 1.8090947853431778e-08 3.1570076119499331e-11 2.8468847700686843e-15
 -1.8090814302709273e-08 3.6616869991437176e-11 1.5427225395363099e-08 -2.2329548547963395e-08 4.0350833066176812e-11 7.8860557339163803e-09 2.1837838335554297e-08 3.5906163963267537e-11 -4.2931559524466048e-07 2.2173565557041369e-08
 3.0453891094146956e-12 -6.0639659527957613e-17 -2.0835908894946662e-14 2.8908386057176104e-12 1.5375548947636691e-08 -2.1442991196581181e-07 3.9703612897504749e-11 -4.9495350193277746e-17 2.0835888047515239e-14 2.8908669005990274e-12
 -2.0835908890047814e-14 -6.0636272965300845e-17 2.8908386052840320e-12 -1.4310518838419255e-07 7.3911885211377795e-09 1.6238069588657603e-11 1.1285002801658268e-08 2.2307159669629615e-07 3.6852745189281402e-11 2.2306946477770080e-07
 1.1307348938218559e-08 3.6852732301879669e-11 2.1513902743314970e-07 -1.5406812086083211e-08 3.8968964430055374e-11 -1.1565782058709343e-08 -2.2573175273796152e-07 3.3502473100456665e-11 -7.9215592871064068e-08 -7.3875964578863029e-09
 1.9677122875864324e-11 -1.1566769944562439e-08 2.2602556627548450e-07 3.3502422941265307e-11 -1.7332950163261387e-14 -1.1731375155628143e-12 2.5514749906499045e-12 -6.5611348116797130e-12 1.7332928566272233e-14 2.5515175470018728e-12
 -3.6485922709164812e-07 -2.2160061019013660e-08 3.3609117770449410e-12 -6.3891341175403247e-12 -1.7332934788511966e-14 2.5515091129718910e-12
    }
  }

  Dataset ("hCurrentDensity-Vector") {
    function  = hCurrentDensity
    type      = vector
    dimension = 3
    location  = vertex
    validity  = [ "substrate" ]
    Values (96) {
 1.4097787287724274e-07 -1.4391495420223845e-07 9.9792135036996921e-06 1.1856471375010859e-07 1.4200376326804717e-07 7.6554209028041115e-06 4.9363342048793251e-07 -4.2530605985344513e-07 5.9494301159843169e-06 -6.3624842141103516e-07
 -6.7840113803405786e-07 4.3985824497208978e-06 2.0899941992749001e-08 1.2338276583066227e-07 4.8811791521066403e-06 3.9791062125617787e-08 -1.2390119455731428e-07 7.2530480952468444e-06 -6.3625317671154794e-07 6.8929540699096997e-07
 3.9027792833862661e-06 9.6383722734797408e-07 9.6383812360367477e-07 4.3318850513687288e-06 3.4179026206051160e-07 6.7778326394922223e-07 3.3918189955444066e-06 -7.6270392230539588e-07 7.4060309608417428e-07 4.0275595697261397e-06
 4.2857299793141077e-07 -5.8874725649145410e-07 3.3081299361289729e-06 -5.2693975410886077e-07 -5.2584079747814892e-07 4.5864970014358201e-06 1.7080682338476863e-07 -3.9032755165742246e-08 5.2248037087008408e-06 1.9257602990884736e-07
 3.7604007579058771e-08 5.5935235792325427e-06 -4.9416842246777353e-08 3.0063130461890776e-08 5.9539199581737024e-06 -7.2860320330760517e-08 -3.1574006391477675e-08 5.6986931109819195e-06 -1.3155377232549125e-06 3.2520418368363184e-08
 4.7327464773953056e-06 -9.3286815001493290e-08 -1.7686458651135271e-06 4.7137962186380074e-06 1.1707978458159429e-08 -8.3173411101800345e-08 7.6325123415512515e-06 -8.8173085042830058e-08 1.7701789863941217e-06 4.7376314515749982e-06
 -1.7702938326065754e-06 -7.8494386030463102e-08 4.7138097344193944e-06 4.3116769024729032e-07 -4.5638209728835791e-08 4.5979659429405049e-06 4.1547164184323999e-10 1.0709134955501525e-07 7.3993745884847709e-06 1.0654198481937561e-07
 5.3741586498477499e-09 7.4691188214397852e-06 3.3701814220739233e-07 -6.9090372149734409e-09 7.5981514928801902e-06 -3.6572569405627296e-09 -3.4628149543130645e-07 6.8722877466406547e-06 6.3362075533770978e-07 1.5830857935467960e-08
 5.0175757248810308e-06 6.4507842934835398e-10 3.4392134274604748e-07 6.8592242692608711e-06 -1.4988670952922125e-06 7.4322900599798368e-08 4.2092143989588627e-06 5.2302375984184732e-08 1.4211228771378149e-06 4.0069008506477143e-06
 -1.1379460970146767e-06 -4.6035907777580503e-08 5.2044951696755042e-06 6.5756343541328457e-08 -1.4277493590880483e-06 3.9998379279447952e-06
    }
  }

  Dataset ("SpaceCharge") {
    function  = SpaceCharge
    type      = scalar
    dimension = 1
    location  = vertex
    validity  = [ "substrate" ]
    Values (32) {
 -1.1629987261111384e-02 -1.1629987261111384e-02 1.0000124700444626e+12 1.0000126480798976e+12 -1.1629987261111384e-02 -1.1629987261111384e-02 1.0000115742109038e+12 1.0000136230466527e+12 -1.5462987573024292e+12 -1.5462996764675117e+12
 -1.5462984235224631e+12 -1.5463002797455315e+12 -7.0688014030456543e+04 -7.0688014030456543e+04 -7.0688014030456543e+04 -7.0688014030456543e+04 1.0000157732101510e+12 -1.5811399821220632e+12 1.0000355423807814e+12 -1.5811399529632573e+12
 -1.5811399869818643e+12 -1.5811378274630356e+12 1.0000353066880913e+12 1.0000353068625193e+12 1.0000248371984297e+12 1.0000217481149205e+12 -1.5811383710980435e+12 1.0000217480602549e+12 -1.5811388796099441e+12 -1.5811384830943660e+12
 1.0000208797264933e+12 -1.5811384537146599e+12
    }
  }

  Dataset ("ElectricField-Vector") {
    function  = ElectricField
    type      = vector
    dimension = 3
    location  = vertex
    validity  = [ "substrate" ]
    Values (96) {
 4.6322372625750148e+01 -4.5536117655740384e+01 3.5924293487733785e+03 2.8274024764120707e+01 1.4296339045503347e+01 3.5970226726228334e+03 2.6695928125087352e+02 -2.6695277316504342e+02 3.4463434043920579e+03 -3.0021983441729196e+02
 -2.6518764753103636e+02 3.3890214125285493e+03 -2.6295530621592526e+01 2.0025433218242735e+01 3.6068433584426493e+03 -1.5666785527619718e+01 -4.2995222037345464e+01 3.5966184502410279e+03 -3.0022213615458708e+02 2.6518675987314526e+02
 3.3890205532041559e+03 2.8596996457198605e+02 2.8596999330245995e+02 3.3481217302782125e+03 -1.1058757618232718e+01 -2.2639530858997848e+01 3.4441633840380941e+03 2.8331747167111603e+00 -2.8326657441543399e+00 3.3957135018147906e+03
 -1.1058839682966942e+01 2.2639547580209047e+01 3.4441631020682935e+03 1.6101791674279127e+01 1.6101794917853304e+01 3.4337033293815298e+03 -2.6225801515130424e-02 4.9353608467398677e+00 3.5774606343377450e+03 1.3203950304896852e+00
 -5.2311818347771348e+00 3.5739911348293003e+03 4.9599247380605274e+00 -8.7160011698308182e+00 3.5607839488542013e+03 4.8594485067078583e+00 3.0298101463890520e-01 3.5557165745253565e+03 -4.7285200666133335e+02 2.3469318941899235e+01
 3.4235536306623289e+03 6.9843146719989289e-09 -4.0472099104688985e-06 3.4235582961903847e+03 2.2989453384314679e+01 -4.3435302223667912e+02 3.4976802409491961e+03 7.1376668092172649e-09 4.0472557593617130e-06 3.4235582329735216e+03
 -4.0472592861996221e-06 7.4275206358675702e-09 3.4235583064512512e+03 -4.0200414221804202e+01 -7.2343106904991892e+00 3.4934597476004301e+03 2.0134428749492599e+01 4.3502738131338941e+02 3.4947494806046075e+03 4.3502736048032511e+02
 2.0134600458165128e+01 3.4947495010062494e+03 4.4341400927291215e+02 -6.3574778923355202e-01 3.5078431454712600e+03 3.7045442106365649e+00 -4.4536212766050016e+02 3.5018002743126785e+03 -2.7685564087273910e+01 -1.0575026199587658e+01
 3.5007982725750012e+03 3.7044770849344366e+00 4.4536228337471812e+02 3.5018002487064855e+03 -3.2481169840952049e-05 -1.8322798345292625e-04 3.4235560504577729e+03 -2.4321515609605033e-04 4.1785135647951233e-05 3.4235552383832010e+03
 -4.7140042942676530e+02 -9.3333707871789588e+00 3.4255723144606964e+03 -2.5288985124464070e-04 -4.3286781150013345e-05 3.4235551824763361e+03
    }
  }

  Dataset ("eMobility") {
    function  = eMobility
    type      = scalar
    dimension = 1
    location  = vertex
    validity  = [ "substrate" ]
    Values (32) {
 9.5688365477006914e+02 9.1038269927285535e+02 9.1977475214815536e+02 7.9886748640911901e+02 7.1727860659599492e+02 7.3590857181220122e+02 7.9886752671892009e+02 9.7885438843441591e+02 6.2082577828023875e+02 6.4627244115302926e+02
 6.2082578936872414e+02 7.5007460912490524e+02 5.3419908528764734e+02 5.4399024861428450e+02 7.3752918422092534e+02 6.4233975396788230e+02 9.3956909107737397e+02 4.1168943909316619e+02 7.5026214219777899e+02 4.1168944040273021e+02
 4.1168943888060807e+02 5.9778424211289735e+02 7.4996137009279744e+02 7.4996136774246634e+02 7.4562548995097939e+02 7.5317746351591506e+02 5.9371073677026845e+02 7.5317747660772147e+02 4.5090807760214818e+02 4.5090809771827486e+02
 9.0057802707633300e+02 4.5090809907444418e+02
    }
  }

  Dataset ("hMobility") {
    function  = hMobility
    type      = scalar
    dimension = 1
    location  = vertex
    validity  = [ "substrate" ]
    Values (32) {
 4.0426570314658113e+02 3.8614407683443665e+02 3.8919778046353053e+02 3.4529940892664820e+02 3.1718653749625508e+02 3.2381486276659189e+02 3.4529941585848172e+02 4.0840348519384401e+02 2.8289449993567194e+02 2.9091732031166680e+02
 2.8289450185137844e+02 3.2885340263645230e+02 2.5275263799373982e+02 2.5625083954508375e+02 3.2445775553384601e+02 2.9131714052455317e+02 3.9562718780442935e+02 2.0837090868827300e+02 3.2889644254547846e+02 2.0837090895074260e+02
 2.0837090864567102e+02 2.7450546545270862e+02 3.2883532843871774e+02 3.2883532803385674e+02 3.2733259342034910e+02 3.3007965211553295e+02 2.7310857816626975e+02 3.3007965433840394e+02 2.2224127339243665e+02 2.2224127727171091e+02
 3.8179431085238343e+02 2.2224127753226009e+02
    }
  }

}
