DF-ISE text

# filename: diode_msh.grd
# written by the library Delaunay
Info {
version     =  1.1
type        = grid
dimension   =  3
nb_vertices =  32
nb_edges    =  115
nb_faces    =  138
nb_elements =  58
nb_regions  =  3
regions     = [ "n-plus" "p-plus" "substrate" ]
materials     = [ Contact Contact Silicon ]
 }
Data {
CoordSystem {
translate = [  0  0  0 ]
transform = [  1  0  0  0  1  0  0  0  1 ]
 }
Vertices (  32) {
 400.0000000000001 -400.0000000000001 0
 400.0000000000001 400.0000000000001 0
 500.0000000000001 -500.0000000000001 0
 -500.0000000000001 -500.0000000000001 0
 -400.0000000000001 400.0000000000001 0
 -400.0000000000001 -400.0000000000001 0
 -500.0000000000001 500.0000000000001 0
 500.0000000000001 500.0000000000001 0
 -500.0000000000001 -500.0000000000001 280
 500.0000000000001 -500.0000000000001 280
 -500.0000000000001 500.0000000000001 280
 500.0000000000001 500.0000000000001 280
 -400.0000000000001 400.0000000000001 280
 -400.0000000000001 -400.0000000000001 280
 400.0000000000001 -400.0000000000001 280
 400.0000000000001 400.0000000000001 280
 -500.0000000000001 400.0000000000001 0
 400.0000000000001 500.0000000000001 280
 400.0000000000001 -500.0000000000001 0
 400.0000000000001 -500.0000000000001 280
 500.0000000000001 400.0000000000001 280
 -500.0000000000001 400.0000000000001 280
 400.0000000000001 500.0000000000001 0
 500.0000000000001 400.0000000000001 0
 500.0000000000001 -400.0000000000001 0
 -400.0000000000001 -500.0000000000001 0
 -500.0000000000001 -400.0000000000001 280
 -400.0000000000001 500.0000000000001 0
 500.0000000000001 -400.0000000000001 280
 -400.0000000000001 -500.0000000000001 280
 -500.0000000000001 -400.0000000000001 0
 -400.0000000000001 500.0000000000001 280
 }
Edges (  115) {
 0 1
 5 25
 9 28
 28 20
 1 4
 4 5
 5 0
 15 31
 4 15
 6 16
 3 8
 4 13
 9 2
 6 10
 13 15
 24 23
 11 7
 8 29
 12 13
 13 14
 14 15
 25 29
 2 24
 15 12
 0 2
 1 7
 4 6
 5 3
 13 8
 9 14
 15 11
 12 10
 14 24
 26 21
 13 25
 9 24
 0 24
 8 25
 15 24
 25 18
 12 21
 6 27
 7 23
 1 23
 18 19
 15 23
 30 21
 22 17
 2 18
 15 17
 9 18
 1 22
 4 16
 9 19
 12 26
 11 20
 4 21
 31 17
 3 30
 29 18
 3 25
 3 26
 5 26
 1 24
 14 18
 0 18
 15 27
 10 27
 10 31
 4 12
 8 26
 13 29
 5 30
 8 5
 14 28
 27 22
 14 25
 23 20
 11 17
 26 30
 11 23
 31 22
 15 22
 7 22
 13 26
 27 31
 14 29
 1 15
 30 16
 21 16
 6 21
 24 28
 10 4
 5 14
 10 21
 2 14
 4 30
 0 25
 15 20
 12 31
 14 19
 28 23
 15 28
 14 4
 11 22
 1 11
 5 1
 29 19
 14 1
 4 27
 4 26
 14 0
 12 27
 1 27
 5 13
 }
Faces (  138) {
 3 114 34 -2
 3 30 80 -46
 3 -104 -20 -12
 3 111 97 -77
 3 -94 1 -77
 3 7 81 -83
 3 28 70 -85
 3 -38 17 -22
 3 -109 20 -88
 3 29 100 -54
 3 -105 78 -48
 3 29 32 -36
 3 0 63 -37
 3 38 91 -103
 3 -6 110 -63
 3 -112 32 -37
 3 28 17 -72
 3 27 58 -73
 3 95 32 -23
 3 26 9 -53
 3 110 79 -97
 3 -74 -11 -28
 3 -7 1 -98
 3 29 64 -51
 3 69 54 -111
 3 -65 100 -45
 3 -13 35 -23
 3 -25 36 -23
 3 8 23 -70
 3 30 78 -50
 3 35 91 -3
 3 56 89 -53
 3 23 112 -67
 3 -86 75 -82
 3 -6 96 -73
 3 63 15 -44
 3 62 79 -73
 3 30 55 -99
 3 -87 64 -60
 3 18 84 -55
 3 -6 11 -115
 3 -93 94 -57
 3 13 94 -91
 3 11 14 -9
 3 87 45 -44
 3 87 38 -64
 3 34 21 -72
 3 11 -19 -70
 3 7 57 -50
 3 27 60 -2
 3 96 88 -53
 3 30 104 -83
 3 14 23 18
 3 95 64 -49
 3 110 33 -57
 3 -74 70 -63
 3 76 21 -87
 3 -47 88 -90
 3 69 40 -57
 3 93 -20 -115
 3 102 101 -46
 3 25 83 -52
 3 31 68 -100
 3 -98 65 -40
 3 108 -1 -112
 3 95 111 24
 3 96 46 -57
 3 50 44 -54
 3 27 61 -63
 3 102 3 -99
 3 -20 71 -87
 3 -82 57 -48
 3 54 33 -41
 3 -113 99 -86
 3 16 83 -105
 3 -21 32 -39
 3 16 42 -81
 3 66 85 -8
 3 25 42 -44
 3 -104 20 -9
 3 82 47 -50
 3 -74 37 -2
 3 -32 40 -95
 3 -25 65 -49
 3 -20 14 -21
 3 105 -31 -88
 3 -11 61 -71
 3 25 -17 -106
 3 -22 39 -60
 3 -87 100 -108
 3 -14 -27 -93
 3 -13 50 -49
 3 -114 51 -76
 3 -6 -5 -107
 3 45 77 -99
 3 26 90 -57
 3 66 75 -83
 3 87 82 -52
 3 29 74 -3
 3 69 112 -110
 3 105 104 -52
 3 -91 9 -90
 3 114 84 -63
 3 -94 6 -112
 3 38 15 -46
 3 -11 60 -38
 3 92 109 -68
 3 28 37 -35
 3 -21 74 -103
 3 80 77 -56
 3 -5 113 -110
 3 23 99 -8
 3 13 67 -42
 3 31 67 -113
 3 8 66 -110
 3 -20 34 -77
 3 59 44 -108
 3 -80 33 -47
 3 11 84 -111
 3 -74 -29 -115
 3 95 -30 12
 3 105 80 -44
 3 93 103 5
 3 -94 106 -109
 3 -107 6 0
 3 101 77 -4
 3 -88 113 -67
 3 111 65 -65
 3 -109 32 -64
 3 26 41 -110
 3 -93 -32 -70
 3 -104 108 4
 3 91 101 -16
 3 -68 68 -86
 3 -33 74 -92
 3 -62 58 -80
 3 76 39 -65
 3 -5 87 -9
 }
Locations (  138) {
i i i i i i e e i e e i e i i i e e i e i i e i i i e e i e
e i i e e e i e i e i i e i i i i i e e e i e i i i i e i i
i e e e i i i e i e e e e i e i e i e i i i e e e i e i e e
i e e e i i i i e i i e i i i e i i e e e e e i i i e e i i
i i i i e e i i i e i i e e i e i i }
Elements (  58) {
 2 -107 6 0
 2 -20 14 -21
 2 -6 -5 -107
 2 14 23 18
 5 -35 -21 14 36
 5 69 125 -95 -61
 5 -98 -93 -97 -127
 5 18 -12 -27 -121
 5 -43 -96 41 -91
 5 -107 -114 -100 -131
 5 -59 -73 24 54
 5 -42 -83 130 58
 5 50 -58 -32 -67
 5 70 46 -57 -116
 5 53 127 -84 -66
 5 78 -77 -122 -88
 5 -62 74 87 100
 5 -99 134 11 30
 5 -38 -110 1 94
 5 -112 73 32 77
 5 29 -11 -81 -52
 5 -111 126 137 114
 5 -55 117 20 66
 5 17 -136 -37 -69
 5 -5 115 -1 -60
 5 -82 107 119 0
 5 -137 88 56 -39
 5 -15 -119 40 102
 5 -90 25 38 116
 5 112 129 90 106
 5 121 -2 -45 -86
 5 -105 -133 13 60
 5 44 104 -36 -46
 5 -20 101 95 31
 5 47 52 -29 -44
 5 -101 51 85 97
 5 79 -9 -138 -132
 5 9 -26 -68 -24
 5 -80 -85 2 43
 5 4 -23 -4 -104
 5 108 -135 -14 -76
 5 96 -34 -6 -78
 5 16 -8 -47 -108
 5 128 12 64 -16
 5 -19 15 65 27
 5 -56 -87 21 68
 5 55 -7 -103 -120
 5 59 -3 -41 -123
 5 118 -40 -25 -48
 5 103 -125 -65 -124
 5 -49 71 5 80
 5 -54 23 120 91
 5 -115 -33 28 99
 5 -129 75 8 45
 5 -128 63 3 136
 5 123 131 122 93
 5 -63 133 113 -74
 5 81 105 -50 -22
 }
Region ("n-plus") {
material =Contact
Elements ( 2) {
 2 0}
}
Region ("p-plus") {
material =Contact
Elements ( 2) {
 3 1}
}
Region ("substrate") {
material =Silicon
Elements ( 54) {
 4 23 45 57 25 24 47 55 36 21 52 9 11 10 22 12 33 8 29 48
 34 38 27 46 56 19 41 50 20 35 6 30 32 53 40 31 5 18 17 7
 51 37 28 26 13 42 54 39 49 43 44 14 15 16}
}
}
